
# =========================================================================
# LAMMPS file for 'read_data' command                                      
# 
# Generated by selm python scripts by Paul J. Atzberger.
# 
# =========================================================================

# =========================================================================
# Description:
# -------------------------------------------------------------------------
# 
# SELM_Lagrangian = SELM_Lagrangian_LAMMPS_ATOM_ANGLE_STYLE
# LagrangianName = Points
# LagrangianTypeStr = LAMMPS_ATOM_ANGLE_STYLE
# 
# SELM_Eulerian   = SELM_Eulerian_LAMMPS_SHEAR_UNIFORM1_FFTW3
#
# atom_type = angle_type
#
# =========================================================================

# =========================================================================
# Header information:
# -------------------------------------------------------------------------
2 atoms
0 bonds
0 angles

1 atom types
0 bond types
0 angle types
# =========================================================================

# =========================================================================
# Domain Size Specification:
# -------------------------------------------------------------------------
-202 202 xlo xhi
-202 202 ylo yhi
-202 202 zlo zhi
0.0 0.0 0.0 xy xz yz
# =========================================================================

# =========================================================================
# Mass Specification:
#
# Gives for each atom the following:
#    type-ID | mass
# -------------------------------------------------------------------------
# Atom Location Specification:
#
# Gives for atom angle_type the following:
#    atom-ID | molecule-ID | type-ID | x | y | z
# -------------------------------------------------------------------------
# Bond Specification:
#
# Gives for atom angle_type the following:
#    bond-ID | type-ID | atom1-ID | atom2-ID
# -------------------------------------------------------------------------
# Angle Specification:
#
# Gives for atom angle_type the following:
#    angle-ID | type-ID | atom1-ID | atom2-ID | atom3-ID
# -------------------------------------------------------------------------
# WARNING: atom-ID, type-ID, molecule-ID must be between 1 - N             
# -------------------------------------------------------------------------

Masses

1 1.1230000

Atoms

1 1 1 -100.0000000 0.0000000 0.0000000
2 1 1 100.0000000 0.0000000 0.0000000
