<?xml version="1.0"?>
<VTKFile type="PolyData" version="0.1" byte_order="LittleEndian" header_type="UInt32" compressor="vtkZLibDataCompressor">
  <PolyData>
    <Piece NumberOfPoints="2" NumberOfVerts="2" NumberOfLines="0" NumberOfStrips="0" NumberOfPolys="0">
      <PointData>
        <DataArray type="Int32" Name="id" format="ascii" RangeMin="1" RangeMax="2">
          1 2
        </DataArray>
        <DataArray type="Int32" Name="type" format="ascii" RangeMin="1" RangeMax="1">
          1 1
        </DataArray>
        <DataArray type="Float64" Name="vx" format="ascii" RangeMin="-1.2990458075e-05" RangeMax="2.4046094136e-05">
          2.4046094136e-05 -1.2990458075e-05
        </DataArray>
        <DataArray type="Float64" Name="fx" format="ascii" RangeMin="0" RangeMax="0">
          0 0
        </DataArray>
      </PointData>
      <CellData>
      </CellData>
      <Points>
        <DataArray type="Float32" Name="Points" NumberOfComponents="3" format="ascii" RangeMin="99.999824526" RangeMax="100.00119781">
          -99.999824524 -0.0005784262903 -2.2527359761e-05 100.00119781 -1.8543658371e-05 -3.2131400076e-05
        </DataArray>
      </Points>
      <Verts>
        <DataArray type="Int64" Name="connectivity" format="ascii" RangeMin="0" RangeMax="1">
          0 1
        </DataArray>
        <DataArray type="Int64" Name="offsets" format="ascii" RangeMin="1" RangeMax="2">
          1 2
        </DataArray>
      </Verts>
      <Lines>
        <DataArray type="Int64" Name="connectivity" format="ascii" RangeMin="0" RangeMax="1">
        </DataArray>
        <DataArray type="Int64" Name="offsets" format="ascii" RangeMin="1" RangeMax="2">
        </DataArray>
      </Lines>
      <Strips>
        <DataArray type="Int64" Name="connectivity" format="ascii" RangeMin="0" RangeMax="1">
        </DataArray>
        <DataArray type="Int64" Name="offsets" format="ascii" RangeMin="1" RangeMax="2">
        </DataArray>
      </Strips>
      <Polys>
        <DataArray type="Int64" Name="connectivity" format="ascii" RangeMin="0" RangeMax="1">
        </DataArray>
        <DataArray type="Int64" Name="offsets" format="ascii" RangeMin="1" RangeMax="2">
        </DataArray>
      </Polys>
    </Piece>
  </PolyData>
</VTKFile>
